ITEM: TIMESTEP 
0 
ITEM: NUMBER OF ATOMS 
108 
ITEM: BOX BOUNDS pp pp pp 
0.00 4.937000 
0.00 4.937000 
0.00 4.937000 
ITEM: ATOMS id type x y z vx vy vz fx fy fz 
1 1 -0.000116 -0.000099 0.000010 -1.163469 -0.994578 0.101277 0.000000 0.000000 0.000000 
2 1 0.822839 0.822874 0.000027 0.059788 0.402529 0.266418 -0.000000 -0.000000 0.000000 
3 1 0.822715 -0.000058 0.823117 -1.187197 -0.583841 2.838449 -0.000000 0.000000 -0.000000 
4 1 0.000024 0.822868 0.822891 0.243455 0.344348 0.578717 0.000000 -0.000000 -0.000000 
5 1 -0.000026 0.000026 1.645626 -0.259153 0.264839 -0.402587 0.000000 0.000000 0.000000 
6 1 0.822821 0.822812 1.645629 -0.124321 -0.212264 -0.376353 -0.000000 -0.000000 0.000000 
7 1 0.822724 0.000201 2.468518 -1.087817 2.007922 0.177466 -0.000000 0.000000 -0.000000 
8 1 0.000266 0.822988 2.468526 2.662139 1.543058 0.262721 0.000000 -0.000000 -0.000000 
9 1 -0.000119 0.000040 3.291359 -1.186998 0.395424 0.255665 0.000000 0.000000 0.000000 
10 1 0.822758 0.823028 3.291204 -0.749219 1.948088 -1.290520 -0.000000 -0.000000 0.000000 
11 1 0.822715 0.000005 4.114127 -1.187749 0.046230 -0.395151 -0.000000 0.000000 -0.000000 
12 1 0.000002 0.822735 4.114145 0.024354 -0.978556 -0.210979 0.000000 -0.000000 -0.000000 
13 1 -0.000112 1.645602 -0.000052 -1.123994 -0.649775 -0.519738 0.000000 0.000000 0.000000 
14 1 0.822860 2.468723 0.000026 0.262821 2.236369 0.259252 -0.000000 -0.000000 0.000000 
15 1 0.822718 1.645565 0.822855 -1.151682 -1.019652 0.212488 -0.000000 0.000000 -0.000000 
16 1 0.000284 2.468404 0.822952 2.841496 -0.958161 1.184606 0.000000 -0.000000 -0.000000 
17 1 -0.000117 1.645591 1.645871 -1.172697 -0.760545 2.041324 0.000000 0.000000 0.000000 
18 1 0.822990 2.468384 1.645680 1.568451 -1.163025 0.138723 -0.000000 -0.000000 0.000000 
19 1 0.822720 1.645730 2.468541 -1.136587 0.635735 0.410974 -0.000000 0.000000 -0.000000 
20 1 -0.000109 2.468553 2.468374 -1.086490 0.533308 -1.258500 0.000000 -0.000000 -0.000000 
21 1 0.000038 1.645677 3.291203 0.380623 0.102323 -1.300731 0.000000 0.000000 0.000000 
22 1 0.823031 2.468491 3.291203 1.979446 -0.091127 -1.300792 -0.000000 -0.000000 0.000000 
23 1 0.823076 1.645586 4.114114 2.422588 -0.804291 -0.526043 -0.000000 0.000000 -0.000000 
24 1 0.000242 2.468465 4.114327 2.423536 -0.348546 1.601967 0.000000 -0.000000 -0.000000 
25 1 0.000034 3.291349 -0.000049 0.338558 0.160502 -0.487936 0.000000 0.000000 0.000000 
26 1 0.822715 4.114207 -0.000058 -1.183779 0.402512 -0.575322 -0.000000 -0.000000 0.000000 
27 1 0.822806 3.291373 0.822931 -0.276612 0.398751 0.982079 -0.000000 0.000000 -0.000000 
28 1 -0.000093 4.114350 0.822860 -0.928040 1.839678 0.270040 0.000000 -0.000000 -0.000000 
29 1 0.000207 3.291536 1.645687 2.073907 2.031213 0.200715 0.000000 0.000000 0.000000 
30 1 0.822868 4.114440 1.645614 0.342897 2.737152 -0.530087 -0.000000 -0.000000 0.000000 
31 1 0.822719 3.291366 2.468430 -1.141888 0.328607 -0.694215 -0.000000 0.000000 -0.000000 
32 1 -0.000109 4.114051 2.468531 -1.088388 -1.152849 0.312461 0.000000 -0.000000 -0.000000 
33 1 0.000172 3.291370 3.291360 1.716756 0.366534 0.270360 0.000000 0.000000 0.000000 
34 1 0.822872 4.114064 3.291349 0.385844 -1.026159 0.158402 -0.000000 -0.000000 0.000000 
35 1 0.822798 3.291286 4.114069 -0.356029 -0.469544 -0.971096 -0.000000 0.000000 -0.000000 
36 1 -0.000052 4.114118 4.114261 -0.517040 -0.488387 0.946750 0.000000 -0.000000 -0.000000 
37 1 1.645564 -0.000076 0.000201 -1.025626 -0.764301 2.012790 0.000000 0.000000 0.000000 
38 1 2.468620 0.822874 0.000061 1.205347 0.403051 0.606191 -0.000000 -0.000000 0.000000 
39 1 2.468538 0.000040 0.822854 0.381948 0.401061 0.207531 -0.000000 0.000000 -0.000000 
40 1 1.645563 0.822860 0.822907 -1.038776 0.265618 0.732416 0.000000 -0.000000 -0.000000 
41 1 1.645827 0.000178 1.645542 1.602521 1.783795 -1.249986 0.000000 0.000000 0.000000 
42 1 2.468476 0.822720 1.645655 -0.242104 -1.135655 -0.115908 -0.000000 -0.000000 0.000000 
43 1 2.468384 -0.000015 2.468423 -1.154002 -0.152564 -0.770999 -0.000000 0.000000 -0.000000 
44 1 1.645694 0.822870 2.468385 0.276932 0.364046 -1.149361 0.000000 -0.000000 -0.000000 
45 1 1.645701 -0.000061 3.291221 0.347623 -0.610780 -1.120963 0.000000 0.000000 0.000000 
46 1 2.468528 0.822834 3.291432 0.285474 0.009885 0.990608 -0.000000 -0.000000 0.000000 
47 1 2.468481 0.000040 4.114129 -0.187375 0.395829 -0.378180 -0.000000 0.000000 -0.000000 
48 1 1.645601 0.822760 4.114060 -0.655357 -0.729008 -1.064337 0.000000 -0.000000 -0.000000 
49 1 1.645689 1.645564 -0.000069 0.229334 -1.022017 -0.690266 0.000000 0.000000 0.000000 
50 1 2.468534 2.468481 0.000015 0.337474 -0.188607 0.150679 -0.000000 -0.000000 0.000000 
51 1 2.468395 1.645552 0.822819 -1.049075 -1.144298 -0.140804 -0.000000 0.000000 -0.000000 
52 1 1.645548 2.468482 0.822830 -1.187424 -0.179520 -0.036396 0.000000 -0.000000 -0.000000 
53 1 1.645548 1.645881 1.645840 -1.187383 2.146097 1.730009 0.000000 0.000000 0.000000 
54 1 2.468809 2.468385 1.645866 3.095063 -1.148454 1.992515 -0.000000 -0.000000 0.000000 
55 1 2.468422 1.645857 2.468523 -0.782709 1.907948 0.228804 -0.000000 0.000000 -0.000000 
56 1 1.645602 2.468386 2.468469 -0.644726 -1.139081 -0.313030 0.000000 -0.000000 -0.000000 
57 1 1.645704 1.645557 3.291205 0.379093 -1.095348 -1.279726 0.000000 0.000000 0.000000 
58 1 2.468538 2.468531 3.291450 0.385471 0.313856 1.165037 -0.000000 -0.000000 0.000000 
59 1 2.468617 1.645664 4.114321 1.175973 -0.027005 1.549699 -0.000000 0.000000 -0.000000 
60 1 1.645549 2.468528 4.114120 -1.173941 0.282998 -0.465092 0.000000 -0.000000 -0.000000 
61 1 1.645943 3.291511 -0.000130 2.761829 1.780636 -1.302450 0.000000 0.000000 0.000000 
62 1 2.468516 4.114052 -0.000009 0.163291 -1.148279 -0.090410 -0.000000 -0.000000 0.000000 
63 1 2.468575 3.291367 0.822855 0.752085 0.338155 0.219132 -0.000000 0.000000 -0.000000 
64 1 1.645557 4.114053 0.822705 -1.098327 -1.136168 -1.284971 0.000000 -0.000000 -0.000000 
65 1 1.645702 3.291223 1.645599 0.356493 -1.102900 -0.675372 0.000000 0.000000 0.000000 
66 1 2.468520 4.114342 1.645570 0.203608 1.752354 -0.969799 -0.000000 -0.000000 0.000000 
67 1 2.468438 3.291271 2.468668 -0.618167 -0.620853 1.685583 -0.000000 0.000000 -0.000000 
68 1 1.645701 4.114098 2.468414 0.346141 -0.680800 -0.861661 0.000000 -0.000000 -0.000000 
69 1 1.645558 3.291359 3.291311 -1.085417 0.263443 -0.221214 0.000000 0.000000 0.000000 
70 1 2.468386 4.114074 3.291347 -1.139041 -0.922096 0.143625 -0.000000 -0.000000 0.000000 
71 1 2.468555 3.291252 4.114084 0.556452 -0.806994 -0.821557 -0.000000 0.000000 -0.000000 
72 1 1.645591 4.114196 4.114192 -0.760038 0.293205 0.258539 0.000000 -0.000000 -0.000000 
73 1 3.291342 0.000004 -0.000008 0.092482 0.036114 -0.076628 0.000000 0.000000 0.000000 
74 1 4.114215 0.822721 0.000180 0.486318 -1.124864 1.802063 -0.000000 -0.000000 0.000000 
75 1 4.114132 0.000144 0.822832 -0.348244 1.440872 -0.014067 -0.000000 0.000000 -0.000000 
76 1 3.291351 0.822831 0.823149 0.178027 -0.026776 3.157337 0.000000 -0.000000 -0.000000 
77 1 3.291362 -0.000098 1.645690 0.293586 -0.978294 0.238818 0.000000 0.000000 0.000000 
78 1 4.114200 0.822720 1.645693 0.338657 -1.135093 0.268234 -0.000000 -0.000000 0.000000 
79 1 4.114272 -0.000020 2.468687 1.054581 -0.198619 1.867419 -0.000000 0.000000 -0.000000 
80 1 3.291354 0.822744 2.468525 0.209971 -0.895646 0.255464 0.000000 -0.000000 -0.000000 
81 1 3.291580 -0.000071 3.291327 2.467119 -0.711625 -0.065805 0.000000 0.000000 0.000000 
82 1 4.114094 0.822754 3.291297 -0.725701 -0.788319 -0.361577 -0.000000 -0.000000 0.000000 
83 1 4.114275 -0.000099 4.114181 1.086720 -0.991182 0.149040 -0.000000 0.000000 -0.000000 
84 1 3.291316 0.822871 4.114201 -0.168743 0.382164 0.341158 0.000000 -0.000000 -0.000000 
85 1 3.291462 1.645922 0.000074 1.287003 2.549646 0.740948 0.000000 0.000000 0.000000 
86 1 4.114048 2.468538 -0.000028 -1.181380 0.382201 -0.275075 -0.000000 -0.000000 0.000000 
87 1 4.114256 1.645571 0.822758 0.892521 -0.958526 -0.750727 -0.000000 0.000000 -0.000000 
88 1 3.291372 2.468491 0.822860 0.385803 -0.090006 0.265758 0.000000 -0.000000 -0.000000 
89 1 3.291368 1.645928 1.645661 0.345208 2.617605 -0.053286 0.000000 0.000000 0.000000 
90 1 4.114203 2.468475 1.645659 0.368492 -0.244234 -0.077119 -0.000000 -0.000000 0.000000 
91 1 4.114202 1.645684 2.468469 0.351133 0.178759 -0.306489 -0.000000 0.000000 -0.000000 
92 1 3.291260 2.468539 2.468519 -0.730806 0.394158 0.193415 0.000000 -0.000000 -0.000000 
93 1 3.291333 1.645634 3.291231 0.000247 -0.324135 -1.017419 0.000000 0.000000 0.000000 
94 1 4.114218 2.468383 3.291328 0.518673 -1.167905 -0.050716 -0.000000 -0.000000 0.000000 
95 1 4.114086 1.645702 4.114113 -0.808699 0.349634 -0.535448 -0.000000 0.000000 -0.000000 
96 1 3.291346 2.468525 4.114212 0.130571 0.248997 0.451136 0.000000 -0.000000 -0.000000 
97 1 3.291298 3.291430 -0.000127 -0.348997 0.969265 -1.273193 0.000000 0.000000 0.000000 
98 1 4.114141 4.114050 0.000022 -0.252297 -1.166085 0.218759 -0.000000 -0.000000 0.000000 
99 1 4.114080 3.291268 0.822711 -0.859579 -0.653931 -1.219037 -0.000000 0.000000 -0.000000 
100 1 3.291254 4.114073 0.822907 -0.790057 -0.931866 0.740671 0.000000 -0.000000 -0.000000 
101 1 3.291285 3.291227 1.645677 -0.485408 -1.065045 0.100847 0.000000 0.000000 0.000000 
102 1 4.114081 4.114176 1.645592 -0.850287 0.093209 -0.742761 -0.000000 -0.000000 0.000000 
103 1 4.114063 3.291386 2.468386 -1.030973 0.528880 -1.134606 -0.000000 0.000000 -0.000000 
104 1 3.291353 4.114206 2.468444 0.196196 0.399123 -0.556026 0.000000 -0.000000 -0.000000 
105 1 3.291226 3.291286 3.291318 -1.066490 -0.470979 -0.153305 0.000000 0.000000 0.000000 
106 1 4.114114 4.114055 3.291213 -0.524914 -1.113113 -1.201537 -0.000000 -0.000000 0.000000 
107 1 4.114082 3.291372 4.114036 -0.848411 0.393458 -1.303012 -0.000000 0.000000 -0.000000 
108 1 3.291224 4.114177 4.114074 -1.092492 0.101093 -0.924712 0.000000 -0.000000 -0.000000 
ITEM: TIMESTEP 
250 
ITEM: NUMBER OF ATOMS 
108 
ITEM: BOX BOUNDS pp pp pp 
0.00 4.937000 
0.00 4.937000 
0.00 4.937000 
ITEM: ATOMS id type x y z vx vy vz fx fy fz 
1 1 -0.028885 -0.024659 0.002657 -1.126331 -0.958434 0.113654 2.884162 2.905486 0.792014 
2 1 0.824170 0.832616 0.006668 0.040766 0.366124 0.262826 -1.449196 -2.678239 -0.486218 
3 1 0.793328 -0.014203 0.893021 -1.148236 -0.519617 2.700015 3.782027 7.218191 -13.599532 
4 1 0.006086 0.831284 0.837296 0.239904 0.320230 0.571622 -0.406588 -2.151427 -0.510936 
5 1 -0.006766 0.006677 1.636028 -0.293093 0.268953 -0.344438 -3.229076 0.426270 5.159962 
6 1 0.819766 0.817767 1.636431 -0.117955 -0.180656 -0.350470 0.510741 2.620445 2.213039 
7 1 0.795848 0.049813 2.472922 -1.048798 1.937346 0.174189 3.379254 -5.929486 -0.182377 
8 1 0.065770 0.861059 2.474950 2.528340 1.479263 0.242147 -12.389926 -5.810250 -2.315916 
9 1 -0.029379 0.009694 3.297700 -1.135260 0.368325 0.251183 4.609273 -2.121487 -0.069938 
10 1 0.804412 0.871174 3.259380 -0.698598 1.881357 -1.232036 4.996707 -5.514305 5.851647 
11 1 0.793234 0.001153 4.104212 -1.162788 0.043754 -0.398738 1.965941 -0.462411 -0.191277 
12 1 0.000527 0.798642 4.108907 0.014026 -0.934871 -0.206005 -0.886297 3.480272 0.516576 
13 1 -0.027887 1.629488 -0.013048 -1.087173 -0.636160 -0.519736 2.693584 0.803148 0.022842 
14 1 0.829699 2.524152 0.006563 0.297167 2.183218 0.267689 3.141127 -3.669945 0.987603 
15 1 0.794246 1.620256 0.828131 -1.110941 -0.999806 0.209117 3.753900 1.279416 -0.153332 
16 1 0.070603 2.444663 0.852417 2.756806 -0.932265 1.168667 -6.771434 2.257765 -1.046567 
17 1 -0.029091 1.626730 1.696277 -1.130719 -0.740993 1.961450 3.576916 1.820602 -7.348501 
18 1 0.861463 2.439736 1.649246 1.472195 -1.103569 0.149907 -9.359126 6.385265 0.800954 
19 1 0.794714 1.661693 2.478538 -1.082968 0.649978 0.375211 5.201044 2.205460 -3.364152 
20 1 -0.026955 2.482002 2.437164 -1.048736 0.547578 -1.228035 3.082793 1.226306 2.533371 
21 1 0.009387 1.648425 3.259196 0.357526 0.127328 -1.239196 -2.418569 2.422199 5.122246 
22 1 0.871923 2.466145 3.258885 1.907279 -0.098797 -1.274561 -6.079045 -0.573217 2.506068 
23 1 0.883006 1.625696 4.101008 2.347068 -0.778300 -0.522267 -6.128071 2.130634 0.067271 
24 1 0.060329 2.459654 4.153838 2.364014 -0.362198 1.538228 -4.816052 -1.433775 -5.119737 
25 1 0.008292 3.295331 -0.011988 0.313925 0.157125 -0.457482 -2.018062 -0.236110 2.394426 
26 1 0.793291 4.124110 -0.014237 -1.162867 0.384189 -0.551183 1.787361 -1.371710 1.932769 
27 1 0.815986 3.301485 0.847216 -0.265952 0.414480 0.951149 0.796024 1.045152 -2.405041 
28 1 -0.023264 4.159829 0.829527 -0.925260 1.777741 0.260767 0.105200 -5.142679 -0.632109 
29 1 0.051470 3.341944 1.650425 2.002797 1.988483 0.166276 -6.050428 -3.179620 -3.023308 
30 1 0.831535 4.182220 1.632880 0.354969 2.649665 -0.457767 1.162756 -9.071830 7.902421 
31 1 0.794664 3.299481 2.451089 -1.080717 0.315972 -0.688916 5.380616 -1.137916 1.060093 
32 1 -0.027043 4.085695 2.476259 -1.056783 -1.097627 0.303646 2.360279 4.438271 -0.521728 
33 1 0.042559 3.300195 3.298035 1.652529 0.326657 0.260144 -5.381544 -3.179484 -0.906901 
34 1 0.832350 4.088893 3.295157 0.367028 -0.967704 0.140668 -1.342607 4.907725 -1.374046 
35 1 0.814155 3.279795 4.090105 -0.324118 -0.439203 -0.932833 2.795823 2.578864 3.283104 
36 1 -0.012932 4.101920 4.137511 -0.511430 -0.487633 0.896578 0.472007 -0.047749 -4.116839 
37 1 1.620059 -0.018939 0.050163 -1.010843 -0.735318 1.971591 0.991264 2.345082 -3.122172 
38 1 2.498561 0.832789 0.015203 1.184243 0.383791 0.604838 -1.429648 -1.583088 -0.104452 
39 1 2.478085 0.009960 0.827755 0.383939 0.389976 0.171244 0.511097 -0.648128 -3.286430 
40 1 1.619747 0.829573 0.841045 -1.020934 0.275422 0.709398 1.373958 1.001536 -2.290721 
41 1 1.685303 0.044199 1.614541 1.527771 1.711078 -1.220305 -6.928412 -6.674680 2.441345 
42 1 2.462640 0.794974 1.642934 -0.212823 -1.057864 -0.094951 3.009952 6.555267 1.701299 
43 1 2.439939 -0.003835 2.449460 -1.106627 -0.153367 -0.735255 3.716760 -0.088938 2.681704 
44 1 1.652498 0.832027 2.439859 0.262135 0.370424 -1.125222 -1.273305 0.458789 1.839767 
45 1 1.654121 -0.015161 3.263320 0.316520 -0.591715 -1.106256 -2.341274 1.372565 1.207447 
46 1 2.475707 0.823039 3.315844 0.290149 0.005739 0.949721 0.337210 -0.195403 -3.124240 
47 1 2.463782 0.009777 4.104831 -0.188640 0.376964 -0.359908 -0.033659 -1.530466 1.415383 
48 1 1.629424 0.804436 4.087674 -0.631314 -0.742133 -1.039832 1.879055 -1.295485 1.675134 
49 1 1.651362 1.620256 -0.017128 0.224163 -0.994639 -0.666449 -0.093024 1.989658 1.970088 
50 1 2.476823 2.463899 0.003840 0.320146 -0.172129 0.157951 -1.364292 1.431068 0.645145 
51 1 2.442350 1.617282 0.819530 -1.027437 -1.104550 -0.113396 1.728953 3.145288 2.194852 
52 1 1.616271 2.463986 0.821776 -1.141303 -0.181944 -0.055486 3.367014 -0.416394 -1.802236 
53 1 1.616339 1.698677 1.688528 -1.123447 2.031908 1.658549 6.595165 -11.571216 -6.619160 
54 1 2.544964 2.440236 1.694947 2.935151 -1.071096 1.899183 -15.703923 8.205964 -8.775113 
55 1 2.449178 1.692855 2.474325 -0.743976 1.822406 0.242636 3.153417 -7.307589 1.802541 
56 1 1.629755 2.440552 2.460920 -0.611087 -1.055836 -0.275678 2.952998 7.927582 3.840626 
57 1 1.655273 1.618421 3.259501 0.387942 -1.066381 -1.245995 0.399100 2.256665 2.642420 
58 1 2.477891 2.476087 3.320406 0.352035 0.276663 1.144009 -2.638400 -3.440917 -1.850006 
59 1 2.497756 1.645045 4.152692 1.147085 -0.020233 1.506373 -2.016537 0.564103 -3.354811 
60 1 1.616637 2.475534 4.102614 -1.121890 0.276610 -0.449995 4.212789 -0.230569 1.323857 
61 1 1.714200 3.335381 -0.032495 2.664816 1.695860 -1.280417 -8.531836 -8.261132 1.599346 
62 1 2.472759 4.085973 -0.002316 0.188388 -1.066720 -0.095492 3.139325 7.828644 -0.304555 
63 1 2.487195 3.299521 0.828357 0.729565 0.302883 0.220839 -1.980808 -2.803673 -0.035064 
64 1 1.618370 4.085906 0.790979 -1.066842 -1.107204 -1.236799 2.415576 2.061890 4.012218 
65 1 1.654709 3.263841 1.628934 0.367781 -1.081038 -0.649435 0.902114 1.649715 2.065947 
66 1 2.473402 4.157585 1.621538 0.177477 1.685950 -0.944497 -2.337160 -5.252419 2.065203 
67 1 2.453007 3.275834 2.510327 -0.616536 -0.613458 1.629154 -0.046896 0.218491 -4.452051 
68 1 1.654141 4.097241 2.446813 0.322238 -0.663641 -0.868030 -1.703059 1.054441 -0.421525 
69 1 1.618674 3.297817 3.285783 -1.054033 0.248483 -0.220899 2.785834 -1.159125 0.031865 
70 1 2.440132 4.091289 3.294869 -1.114284 -0.891348 0.136403 1.748019 2.325130 -0.424089 
71 1 2.482241 3.271257 4.093642 0.530060 -0.784640 -0.808679 -2.054626 1.981061 1.272204 
72 1 1.626723 4.121593 4.120562 -0.745135 0.302897 0.246309 1.046482 1.049746 -1.166194 
73 1 3.293662 0.000765 -0.001849 0.093394 0.019037 -0.068956 0.078650 -1.409228 0.449042 
74 1 4.126107 0.794906 0.044675 0.455705 -1.086922 1.733117 -2.310081 3.368538 -6.072793 
75 1 4.105375 0.035631 0.822597 -0.353583 1.374213 0.003352 -0.333325 -5.922744 2.038496 
76 1 3.295762 0.822348 0.901467 0.172999 -0.004173 3.085687 -0.450030 1.897768 -5.571597 
77 1 3.298733 -0.024315 1.651754 0.297065 -0.947948 0.248932 0.258100 2.744533 0.659823 
78 1 4.122655 0.794616 1.652683 0.338609 -1.102983 0.302996 0.189883 2.534849 2.973653 
79 1 4.140600 -0.004953 2.514630 1.048924 -0.195878 1.774369 -0.666696 0.044366 -8.329126 
80 1 3.296435 0.800532 2.474695 0.190985 -0.877011 0.230720 -1.380638 1.106462 -1.845285 
81 1 3.352486 -0.017810 3.289776 2.375322 -0.705909 -0.052207 -7.462797 0.358273 1.466887 
82 1 4.096276 0.803469 3.282405 -0.687104 -0.735255 -0.342094 3.109224 4.749721 1.874250 
83 1 4.141048 -0.024795 4.117945 1.038641 -0.981395 0.153542 -4.053352 0.778293 0.371866 
84 1 3.287373 0.832309 4.122759 -0.136597 0.368061 0.343802 2.503528 -1.180947 0.081489 
85 1 3.323351 1.708816 0.018606 1.248846 2.446434 0.739350 -3.801658 -8.847636 -0.526667 
86 1 4.085107 2.478254 -0.006899 -1.108687 0.404896 -0.276511 6.323168 2.490797 -0.414396 
87 1 4.136474 1.621908 0.804394 0.880142 -0.922493 -0.701485 -1.184458 2.955649 4.148209 
88 1 3.300890 2.466372 0.829383 0.370478 -0.072134 0.252223 -1.273830 1.828828 -0.956515 
89 1 3.300244 1.710359 1.644437 0.384686 2.488274 -0.041751 5.103209 -12.256249 0.709100 
90 1 4.123451 2.462607 1.643555 0.371694 -0.216108 -0.098896 0.116045 2.266005 -1.899687 
91 1 4.122713 1.649975 2.460942 0.316716 0.157755 -0.287998 -3.247400 -1.647388 1.918294 
92 1 3.273517 2.478369 2.473728 -0.661757 0.392096 0.245689 6.710451 -0.007142 5.640638 
93 1 3.291278 1.637627 3.265983 -0.006838 -0.313063 -0.995893 -0.535174 0.835043 1.624554 
94 1 4.127129 2.439602 3.290036 0.510802 -1.119593 -0.054306 -0.807432 3.715903 -0.401191 
95 1 4.094115 1.654245 4.100813 -0.780812 0.326764 -0.525228 2.009915 -1.760452 0.827776 
96 1 3.294605 2.474722 4.125231 0.129516 0.246255 0.419826 -0.147864 -0.129744 -2.599307 
97 1 3.282564 3.315364 -0.031739 -0.349330 0.933213 -1.247601 0.105650 -3.020833 2.014422 
98 1 4.107702 4.085175 0.005459 -0.266805 -1.132829 0.214371 -0.976388 2.719239 -0.454554 
99 1 4.092913 3.274988 0.792598 -0.824352 -0.644520 -1.176813 2.387887 0.940166 3.291607 
100 1 3.271779 4.091039 0.841132 -0.756272 -0.900832 0.705238 2.900614 2.487069 -2.970465 
101 1 3.279229 3.264938 1.648234 -0.473914 -1.023370 0.104312 1.249948 3.618634 0.136707 
102 1 4.093025 4.116478 1.627110 -0.825543 0.088907 -0.732584 2.138688 -0.511289 0.792309 
103 1 4.088467 3.304340 2.440220 -1.011082 0.496831 -1.113007 1.411747 -2.605844 1.443570 
104 1 3.295995 4.124040 2.454654 0.165449 0.382111 -0.542700 -2.401002 -1.342581 1.112095 
105 1 3.264903 3.279611 3.287423 -1.024742 -0.457922 -0.160441 3.619750 1.252940 -0.527783 
106 1 4.101153 4.086236 3.261535 -0.505991 -1.113186 -1.158466 1.469189 -0.189121 3.504645 
107 1 4.093105 3.301032 4.081619 -0.822277 0.373761 -1.284166 1.850212 -1.393070 1.528073 
108 1 3.264137 4.116724 4.091056 -1.066352 0.103182 -0.913112 1.995527 0.127895 0.888337 
ITEM: TIMESTEP 
500 
ITEM: NUMBER OF ATOMS 
108 
ITEM: BOX BOUNDS pp pp pp 
0.00 4.937000 
0.00 4.937000 
0.00 4.937000 
ITEM: ATOMS id type x y z vx vy vz fx fy fz 
1 1 -0.055853 -0.047375 0.005742 -1.020970 -0.846162 0.131678 5.534564 6.165938 0.479700 
2 1 0.824608 0.840724 0.012961 -0.009840 0.275853 0.235369 -2.553213 -4.461980 -1.794012 
3 1 0.766444 -0.022491 0.952846 -0.979952 -0.018546 1.920548 9.309855 37.837072 -54.423831 
4 1 0.011828 0.838253 0.851395 0.212878 0.221801 0.555396 -2.059679 -6.066443 -0.760948 
5 1 -0.015733 0.013612 1.629873 -0.450467 0.288337 -0.113442 -9.692667 1.018305 13.791143 
6 1 0.817026 0.814395 1.628679 -0.099853 -0.077041 -0.256809 0.875240 5.679704 5.492318 
7 1 0.771268 0.095467 2.477223 -0.891988 1.674645 0.170387 9.859376 -16.096925 -0.095184 
8 1 0.122699 0.895170 2.479538 1.920261 1.204716 0.087879 -38.753488 -16.998841 -11.426750 
9 1 -0.055516 0.018025 3.304166 -0.920894 0.290776 0.278538 13.357638 -4.038052 3.015465 
10 1 0.789686 0.915760 3.231815 -0.425010 1.657343 -0.907771 18.505521 -12.663476 22.051010 
11 1 0.764999 0.001934 4.094198 -1.087684 0.010930 -0.401534 4.142076 -2.380424 0.017422 
12 1 0.000464 0.776756 4.104027 -0.024803 -0.800845 -0.179640 -2.346274 7.369701 1.694494 
13 1 -0.054008 1.613820 -0.026062 -0.995159 -0.618739 -0.523419 4.626071 0.523086 -0.494946 
14 1 0.838630 2.577414 0.013839 0.438371 2.074600 0.326789 8.412545 -4.649234 4.045635 
15 1 0.768327 1.595621 0.833313 -0.933242 -0.975616 0.205098 11.097659 0.251993 -0.268402 
16 1 0.136577 2.422509 0.881219 2.488226 -0.818847 1.131203 -15.217042 7.593119 -2.197318 
17 1 -0.055715 1.609129 1.741695 -0.977466 -0.651295 1.615509 9.094119 5.772180 -21.538936 
18 1 0.893127 2.416005 1.653216 0.956724 -0.703583 0.163472 -35.089347 28.865432 -0.148208 
19 1 0.770357 1.679523 2.486223 -0.817678 0.819913 0.211918 17.072763 12.849678 -10.264032 
20 1 -0.051840 2.496237 2.407596 -0.927467 0.597199 -1.123621 6.801393 2.739590 6.039518 
21 1 0.016991 1.652837 3.230520 0.225081 0.245381 -1.026881 -8.799529 7.315539 12.195395 
22 1 0.916838 2.463449 3.228334 1.650396 -0.118250 -1.144587 -15.116315 -0.920864 8.804855 
23 1 0.939032 1.607192 4.087893 2.107262 -0.690357 -0.530799 -13.212152 5.123595 -0.857708 
24 1 0.117330 2.449835 4.190100 2.173322 -0.437105 1.340650 -10.578998 -4.885504 -10.769672 
25 1 0.015263 3.299158 -0.022430 0.234397 0.147622 -0.369125 -4.399852 -0.613683 4.661184 
26 1 0.765039 4.133184 -0.027195 -1.086720 0.338734 -0.477362 4.480254 -2.169490 4.014325 
27 1 0.809705 3.312167 0.869932 -0.230820 0.437532 0.852812 2.242466 0.467391 -5.815643 
28 1 -0.046402 4.202008 0.835833 -0.927395 1.571845 0.244121 -0.260960 -11.456729 -0.550036 
29 1 0.098706 3.390440 1.653103 1.735893 1.885719 0.024833 -16.207982 -4.647665 -8.817415 
30 1 0.841126 4.242966 1.626461 0.431957 2.076634 0.074526 6.082088 -41.879899 39.895558 
31 1 0.770184 3.306829 2.434691 -0.842276 0.263473 -0.598020 14.298521 -3.258476 7.201433 
32 1 -0.052527 4.060121 2.483709 -0.975186 -0.931616 0.294008 4.157471 8.731231 -0.175865 
33 1 0.081418 3.307009 3.304040 1.424557 0.205044 0.209330 -13.408366 -6.613221 -3.637512 
34 1 0.841018 4.066928 3.298101 0.323665 -0.761344 0.089650 -2.097530 12.062026 -2.732726 
35 1 0.807373 3.269961 4.068320 -0.199722 -0.334836 -0.788377 7.501359 5.818372 8.748762 
36 1 -0.025516 4.089661 4.158133 -0.493453 -0.495708 0.733929 0.948091 -0.681001 -9.038497 
37 1 1.595136 -0.036277 0.098185 -0.982415 -0.638961 1.859848 1.237666 5.609505 -5.803634 
38 1 2.527658 0.841688 0.030262 1.142163 0.320398 0.598337 -1.827770 -3.549818 -0.497317 
39 1 2.488057 0.019545 0.830462 0.423615 0.379734 0.022909 2.910353 0.040895 -8.898265 
40 1 1.594776 0.837019 0.857584 -0.972614 0.331697 0.592842 2.448943 3.837188 -7.499985 
41 1 1.719964 0.083588 1.585131 1.184057 1.381671 -1.119244 -22.173000 -21.273273 5.767513 
42 1 2.459041 0.771648 1.641338 -0.037785 -0.761167 -0.021865 12.247381 18.405759 4.488405 
43 1 2.413817 -0.007718 2.432154 -0.969752 -0.158113 -0.641315 7.163729 -0.285398 4.753018 
44 1 1.658481 0.841449 2.412459 0.210102 0.383192 -1.061903 -2.912117 0.432538 3.140866 
45 1 1.661088 -0.029428 3.236195 0.233272 -0.546670 -1.057799 -4.329629 2.180825 2.728102 
46 1 2.483092 0.823161 3.338328 0.301473 0.006280 0.839449 0.564339 0.348165 -5.628592 
47 1 2.459072 0.018546 4.096420 -0.187433 0.317966 -0.307808 0.145081 -3.219294 2.766873 
48 1 1.614451 0.785188 4.062276 -0.557762 -0.810848 -0.990602 4.136746 -4.580295 2.136121 
49 1 1.657060 1.596145 -0.032918 0.237729 -0.930532 -0.586904 1.374714 3.011150 4.497559 
50 1 2.484261 2.460242 0.008083 0.269995 -0.112875 0.184992 -2.625832 3.348753 1.537358 
51 1 2.417375 1.590983 0.817622 -0.965023 -0.987522 -0.030557 3.193162 6.192243 4.450404 
52 1 1.589072 2.459180 0.819569 -1.025020 -0.207915 -0.129971 5.895815 -1.761235 -4.048906 
53 1 1.592178 1.742785 1.726592 -0.717464 1.348132 1.327107 29.253253 -48.272916 -21.419072 
54 1 2.609629 2.418319 1.737841 2.059104 -0.573691 1.451583 -59.711157 34.726865 -28.641207 
55 1 2.431936 1.735043 2.481513 -0.621639 1.509276 0.357260 6.699368 -18.184543 7.869717 
56 1 1.615895 2.418308 2.456248 -0.476072 -0.648161 -0.050010 8.457144 26.710225 15.604812 
57 1 1.665011 1.592677 3.229472 0.386369 -0.986138 -1.144862 -0.734124 4.090876 5.589456 
58 1 2.485588 2.481305 3.348111 0.253771 0.114010 1.058512 -5.223178 -10.161767 -5.353580 
59 1 2.525686 1.644791 4.188984 1.084006 0.002887 1.386053 -2.907268 1.318258 -6.195569 
60 1 1.590379 2.482460 4.091971 -0.961862 0.281582 -0.393876 8.568389 0.739099 3.236735 
61 1 1.776525 3.373343 -0.063883 2.245715 1.255259 -1.227278 -27.514341 -29.630059 2.502380 
62 1 2.479614 4.063525 -0.004726 0.419823 -0.645813 -0.091474 17.896780 28.605069 1.149423 
63 1 2.504487 3.305881 0.833792 0.639674 0.192804 0.210177 -5.527358 -6.177008 -0.951588 
64 1 1.592681 4.058962 0.761815 -0.980154 -1.047413 -1.077756 4.544371 2.389625 8.731176 
65 1 1.664273 3.237477 1.613556 0.400190 -1.023117 -0.573513 1.652850 2.953717 3.960582 
66 1 2.476728 4.197496 1.598865 0.073042 1.484603 -0.857224 -6.249173 -10.982452 5.125892 
67 1 2.437488 3.260465 2.549170 -0.629419 -0.620851 1.459856 -1.127067 -0.932306 -9.221575 
68 1 1.661555 4.080982 2.424970 0.267848 -0.638185 -0.879386 -2.537833 0.878648 -0.453370 
69 1 1.593640 3.303550 3.280274 -0.930228 0.205778 -0.219738 7.426789 -2.293476 0.055877 
70 1 2.412925 4.069952 3.298166 -1.059513 -0.807877 0.128822 2.521596 4.365420 -0.088091 
71 1 2.494648 3.252606 4.074106 0.455393 -0.692272 -0.741245 -3.903102 5.819090 4.528298 
72 1 1.608463 4.129723 4.126149 -0.715244 0.356956 0.192420 1.208234 3.395580 -3.202505 
73 1 3.296035 0.000645 -0.003446 0.097166 -0.033988 -0.059848 0.254092 -2.788790 0.208855 
74 1 4.136594 0.769449 0.085032 0.377774 -0.918649 1.447789 -3.756289 11.165607 -18.097327 
75 1 4.096403 0.067099 0.823953 -0.365863 1.097874 0.136685 -0.799966 -17.334485 9.877013 
76 1 3.299895 0.823106 0.976284 0.156573 0.075411 2.878153 -0.727440 4.606105 -11.178994 
77 1 3.306266 -0.046698 1.658180 0.306596 -0.823783 0.263801 0.511463 7.503612 0.360869 
78 1 4.131270 0.768119 1.661607 0.354315 -1.005761 0.427440 1.096992 5.377702 7.169074 
79 1 4.166420 -0.009919 2.554967 1.007223 -0.205651 1.392261 -3.054267 -0.993405 -23.510200 
80 1 3.300672 0.778941 2.479729 0.144506 -0.851822 0.166775 -2.297877 0.795634 -3.223859 
81 1 3.408578 -0.035394 3.289268 2.074430 -0.704413 0.026393 -17.091481 -0.494155 5.174067 
82 1 4.080427 0.787349 3.274769 -0.567693 -0.522508 -0.255751 6.482387 12.740582 5.152635 
83 1 4.165199 -0.048987 4.121940 0.872068 -0.949823 0.167482 -9.500208 1.837602 0.717050 
84 1 3.284987 0.840986 4.131341 -0.045677 0.320060 0.340939 4.737032 -2.721298 -0.359819 
85 1 3.352511 1.765768 0.036709 1.043604 2.047148 0.699256 -13.893937 -24.671263 -2.881664 
86 1 4.060476 2.489884 -0.014098 -0.812476 0.561308 -0.306781 18.721494 11.362871 -2.269903 
87 1 4.157880 1.600133 0.788690 0.822605 -0.805886 -0.534562 -3.628191 6.464766 9.311396 
88 1 3.309579 2.465544 0.835355 0.317624 0.023512 0.225740 -3.081140 6.190521 -0.936215 
89 1 3.313442 1.765963 1.643523 0.771742 1.831896 -0.039257 29.600273 -43.842811 -1.178264 
90 1 4.132760 2.458190 1.640195 0.372481 -0.126422 -0.182135 -0.002390 5.038549 -4.989984 
91 1 4.128967 1.653263 2.454818 0.154663 0.101210 -0.179778 -10.479204 -2.711810 7.442659 
92 1 3.260541 2.488276 2.483170 -0.311302 0.406406 0.580827 22.718039 1.387343 23.049875 
93 1 3.290898 1.630127 3.241724 -0.024861 -0.284993 -0.940490 -0.873776 1.359964 2.785555 
94 1 4.139505 2.413134 3.288464 0.473693 -0.984953 -0.075260 -2.206371 7.075016 -1.336649 
95 1 4.075345 1.661686 4.088057 -0.717728 0.262044 -0.490377 2.881751 -3.431140 2.065935 
96 1 3.297748 2.480853 4.134588 0.119767 0.244930 0.316601 -0.686897 0.016990 -5.703915 
97 1 3.273951 3.337342 -0.062098 -0.335120 0.808820 -1.174069 1.232354 -7.140532 3.825978 
98 1 4.100705 4.058028 0.010582 -0.292541 -1.026761 0.191474 -0.897286 5.874252 -1.455267 
99 1 4.073171 3.259341 0.764561 -0.751761 -0.600138 -1.052756 3.337476 2.744248 6.762912 
100 1 3.254219 4.069591 0.857453 -0.630279 -0.803792 0.586019 7.507665 5.409135 -6.642562 
101 1 3.268055 3.241033 1.650826 -0.407913 -0.866720 0.099697 4.258258 9.257275 -0.666094 
102 1 4.073362 4.118406 1.609123 -0.735280 0.059145 -0.703571 5.231557 -2.037890 1.539294 
103 1 4.063733 3.315643 2.412909 -0.964110 0.396354 -1.070361 2.369005 -5.446534 1.902654 
104 1 3.299148 4.133026 2.441594 0.078814 0.331202 -0.495381 -4.473371 -2.782408 2.819749 
105 1 3.240955 3.268788 3.283208 -0.869439 -0.398002 -0.177854 9.069224 3.728046 -0.821168 
106 1 4.089090 4.058253 3.234064 -0.455211 -1.129470 -1.025107 2.470877 -1.150032 7.119662 
107 1 4.073239 3.309844 4.050177 -0.764147 0.328035 -1.223974 2.681353 -2.243571 3.379721 
108 1 3.238274 4.119341 4.068584 -0.997124 0.105870 -0.882107 3.439368 0.056610 1.529047 
ITEM: TIMESTEP 
750 
ITEM: NUMBER OF ATOMS 
108 
ITEM: BOX BOUNDS pp pp pp 
0.00 4.937000 
0.00 4.937000 
0.00 4.937000 
ITEM: ATOMS id type x y z vx vy vz fx fy fz 